 Gaussian 09, Revision D.01,
 Gaussian 09:  EM64M-G09RevD.01 24-Apr-2013

 --------------------------------------------------------
 # opt=(modredundant,maxcycles=350) B3LYP/6-311G* scf=xqc
 --------------------------------------------------------

 ---------
 cu2(h20)1
 ---------
 Symbolic Z-matrix:
 Charge =  2 Multiplicity = 2

 SCF Done:  E(UB3LYP) =  -1715.99589881     A.U. after   65 cycles
 SCF Done:  E(UB3LYP) =  -1715.99589882     a.u. after    4 cycles
 SCF Done:  E(UB3LYP) =  -1715.99665248     A.U. after   65 cycles
 SCF Done:  E(UB3LYP) =  -1715.99669889     a.u. after    9 cycles
 SCF Done:  E(UB3LYP) =  -1715.99621072     A.U. after   65 cycles
 SCF Done:  E(UB3LYP) =  -1715.99695932     a.u. after   24 cycles
 Optimization completed.
    -- Stationary point found.
 SCF Done:  E(UB3LYP) =  -1715.99555993     A.U. after   65 cycles
 SCF Done:  E(UB3LYP) =  -1715.99555993     a.u. after    3 cycles
 SCF Done:  E(UB3LYP) =  -1715.99556055     A.U. after   65 cycles
 SCF Done:  E(UB3LYP) =  -1715.99556056     a.u. after    3 cycles
 Optimization completed.
 SCF Done:  E(UB3LYP) =  -1716.00980294     A.U. after   15 cycles
 SCF Done:  E(UB3LYP) =  -1716.00980331     A.U. after   14 cycles
 SCF Done:  E(UB3LYP) =  -1715.98420482     A.U. after   16 cycles
 SCF Done:  E(UB3LYP) =  -1715.98426021     A.U. after   15 cycles
 SCF Done:  E(UB3LYP) =  -1715.93476003     A.U. after   16 cycles
 SCF Done:  E(UB3LYP) =  -1715.93484311     A.U. after   15 cycles
    -- Stationary point found.
 SCF Done:  E(UB3LYP) =  -1715.84717914     A.U. after   17 cycles
 SCF Done:  E(UB3LYP) =  -1715.84735074     A.U. after   15 cycles
 SCF Done:  E(UB3LYP) =  -1715.84735245     A.U. after   14 cycles
 SCF Done:  E(UB3LYP) =  -1715.84735285     A.U. after   14 cycles
 Optimization completed.
    -- Stationary point found.

                         Standard orientation:
 ---------------------------------------------------------------------
 Center     Atomic      Atomic             Coordinates (Angstroms)
 Number     Number       Type             X           Y           Z
 ---------------------------------------------------------------------
      1         29           0        0.007003   -0.382333    0.000000
      2          8           0        0.007003    0.986973    0.000000
      3          1           0       -0.129550    1.595928    0.787481
      4          1           0       -0.129550    1.595928   -0.787481
 ---------------------------------------------------------------------

 The electronic state is 2-A'.
 Alpha  occ. eigenvalues -- -323.67646 -39.49130 -34.73113 -34.70173 -34.69580
 Alpha  occ. eigenvalues --  -19.77284  -5.03247  -3.58376  -3.50674  -3.49385
 Alpha  occ. eigenvalues --   -1.68166  -1.21564  -1.19199  -1.10278  -0.97919
 Alpha  occ. eigenvalues --   -0.97439  -0.96680  -0.92510  -0.90134
 Alpha virt. eigenvalues --   -0.58466  -0.43128  -0.38162  -0.22925  -0.20129
 Alpha virt. eigenvalues --   -0.07631   0.10465   0.15959   0.23514   0.50846
 Alpha virt. eigenvalues --    0.68654   0.73297   0.80051   0.81266   0.85481

  Beta  occ. eigenvalues -- -323.67589 -39.47167 -34.70530 -34.68835 -34.68729
  Beta  occ. eigenvalues --  -19.76734  -4.99238  -3.50940  -3.47578  -3.47520
  Beta  occ. eigenvalues --   -1.66592  -1.18551  -1.18474  -1.05730  -0.96157
  Beta  occ. eigenvalues --   -0.95295  -0.94675  -0.88596
  Beta virt. eigenvalues --   -0.73800  -0.56984  -0.42801  -0.37947  -0.22988
  Beta virt. eigenvalues --   -0.19764  -0.07316   0.11804   0.17716   0.24031
  Beta virt. eigenvalues --    0.51835   0.70426   0.74268   0.81619   0.82902

 Mulliken charges and spin densities:
               1          2
     1  Cu   1.633209   0.726815
     2  O   -0.855954   0.280915
     3  H    0.611372  -0.003865
     4  H    0.611372  -0.003865
 Sum of Mulliken charges =   2.00000   1.00000

 Dipole moment (field-independent basis, Debye):
    X=             -0.8008    Y=              1.8003    Z=              0.0000  Tot=              1.9703
 Quadrupole moment (field-independent basis, Debye-Ang):
   XX=            -14.0566   YY=             -1.0915   ZZ=            -10.3864
   XY=             -1.1643   XZ=              0.0000   YZ=              0.0000

 Normal termination of Gaussian 09 at Fri Jan 29 13:09:31 2016.
