 Gaussian 09, Revision D.01,
 Gaussian 09:  EM64M-G09RevD.01 24-Apr-2013

 --------------------------------------------------------
 # opt=(modredundant,maxcycles=350) B3LYP/6-311G* scf=xqc
 --------------------------------------------------------

 ---------
 cu2(h20)2
 ---------
 Symbolic Z-matrix:
 Charge =  2 Multiplicity = 2

 SCF Done:  E(UB3LYP) =  -1792.54437987     A.U. after   26 cycles
 SCF Done:  E(UB3LYP) =  -1792.54454104     A.U. after   14 cycles
 SCF Done:  E(UB3LYP) =  -1792.54455533     A.U. after   14 cycles
 SCF Done:  E(UB3LYP) =  -1792.54458378     A.U. after   13 cycles
 SCF Done:  E(UB3LYP) =  -1792.54464314     A.U. after   14 cycles
 SCF Done:  E(UB3LYP) =  -1792.54462951     A.U. after   14 cycles
 SCF Done:  E(UB3LYP) =  -1792.54464572     A.U. after   13 cycles
 SCF Done:  E(UB3LYP) =  -1792.54464757     A.U. after   12 cycles
 SCF Done:  E(UB3LYP) =  -1792.54464594     A.U. after   12 cycles
 Optimization completed.
    -- Stationary point found.
 SCF Done:  E(UB3LYP) =  -1792.54399293     A.U. after   14 cycles
 Optimization completed.
 SCF Done:  E(UB3LYP) =  -1792.60050767     A.U. after   11 cycles
 SCF Done:  E(UB3LYP) =  -1792.60054412     A.U. after   12 cycles
 SCF Done:  E(UB3LYP) =  -1792.60054824     A.U. after   11 cycles
 SCF Done:  E(UB3LYP) =  -1792.60053968     A.U. after   10 cycles
 SCF Done:  E(UB3LYP) =  -1792.58035150     A.U. after   11 cycles
 SCF Done:  E(UB3LYP) =  -1792.58040513     A.U. after   12 cycles
 SCF Done:  E(UB3LYP) =  -1792.53960930     A.U. after   14 cycles
 SCF Done:  E(UB3LYP) =  -1792.53970164     A.U. after   10 cycles
    -- Stationary point found.
 SCF Done:  E(UB3LYP) =  -1792.46560723     A.U. after   12 cycles
 SCF Done:  E(UB3LYP) =  -1792.46577621     A.U. after   10 cycles
 Optimization completed.
    -- Stationary point found.

                         Standard orientation:
 ---------------------------------------------------------------------
 Center     Atomic      Atomic             Coordinates (Angstroms)
 Number     Number       Type             X           Y           Z
 ---------------------------------------------------------------------
      1         29           0        0.000000   -0.086668    0.000000
      2          8           0        0.003791   -1.483356    0.000000
      3          1           0       -0.772185   -2.109926    0.000000
      4          1           0        0.784291   -2.104441    0.000000
      5          8           0       -0.003883    1.744637    0.000000
      6          1           0       -0.797122    2.316316    0.000000
      7          1           0        0.785756    2.321161    0.000000
 ---------------------------------------------------------------------

 The electronic state is 2-A".
 Alpha  occ. eigenvalues -- -323.58936 -39.41398 -34.64246 -34.63965 -34.61124
 Alpha  occ. eigenvalues --  -19.72282 -19.63236  -4.94729  -3.47741  -3.45040
 Alpha  occ. eigenvalues --   -3.39786  -1.62438  -1.51228  -1.14341  -1.12702
 Alpha  occ. eigenvalues --   -1.03880  -1.02607  -0.95552  -0.89312  -0.89256
 Alpha  occ. eigenvalues --   -0.88150  -0.87056  -0.82057  -0.81082
 Alpha virt. eigenvalues --   -0.44699  -0.37398  -0.33595  -0.29163  -0.27215
 Alpha virt. eigenvalues --   -0.19643  -0.17882  -0.04882  -0.02595   0.02230
 Alpha virt. eigenvalues --    0.15005   0.25983   0.26241   0.29184   0.38865

  Beta  occ. eigenvalues -- -323.58935 -39.39337 -34.61987 -34.61747 -34.60592
  Beta  occ. eigenvalues --  -19.71623 -19.62885  -4.90595  -3.41915  -3.39218
  Beta  occ. eigenvalues --   -3.38440  -1.60901  -1.50416  -1.13591  -1.12103
  Beta  occ. eigenvalues --   -1.02338  -0.95790  -0.95199  -0.87362  -0.87177
  Beta  occ. eigenvalues --   -0.86243  -0.81047  -0.80589
  Beta virt. eigenvalues --   -0.65742  -0.44313  -0.37165  -0.33462  -0.28914
  Beta virt. eigenvalues --   -0.27140  -0.19463  -0.17931  -0.04834  -0.02401
  Beta virt. eigenvalues --    0.02322   0.16879   0.26303   0.27512   0.29456

 Mulliken charges and spin densities:
               1          2
     1  Cu   1.393254   0.677410
     2  O   -0.851189   0.231663
     3  H    0.595917  -0.008431
     4  H    0.595836  -0.008431
     5  O   -0.876637   0.115514
     6  H    0.571344  -0.003862
     7  H    0.571475  -0.003863
 Sum of Mulliken charges =   2.00000   1.00000

 Dipole moment (field-independent basis, Debye):
    X=              0.0040    Y=             -0.9663    Z=              0.0000  Tot=              0.9663
 Quadrupole moment (field-independent basis, Debye-Ang):
   XX=            -14.6226   YY=             12.7753   ZZ=            -21.8935
   XY=             -0.0708   XZ=              0.0000   YZ=              0.0000

 Normal termination of Gaussian 09 at Fri Jan 29 13:24:27 2016.
