 Gaussian 09, Revision D.01,
 Gaussian 09:  EM64L-G09RevD.01 24-Apr-2013

 -------------------------------------------------------
 #opt=(modredundant,maxcycles=350) B3LYP/6-311G* scf=xqc
 -------------------------------------------------------

 ---------
 cu2(h20)2
 ---------
 Symbolic Z-matrix:
 Charge =  2 Multiplicity = 2

 SCF Done:  E(UB3LYP) =  -1792.48847144     A.U. after   37 cycles
 SCF Done:  E(UB3LYP) =  -1792.51761989     A.U. after   23 cycles
 SCF Done:  E(UB3LYP) =  -1792.53917126     A.U. after   26 cycles
 SCF Done:  E(UB3LYP) =  -1792.54173594     A.U. after   23 cycles
 SCF Done:  E(UB3LYP) =  -1792.54366597     A.U. after   27 cycles
 SCF Done:  E(UB3LYP) =  -1792.54367653     A.U. after   65 cycles
 SCF Done:  E(UB3LYP) =  -1792.54374109     a.u. after    4 cycles
 SCF Done:  E(UB3LYP) =  -1792.54446724     A.U. after   32 cycles
 SCF Done:  E(UB3LYP) =  -1792.54455302     A.U. after   27 cycles
 SCF Done:  E(UB3LYP) =  -1792.54456755     A.U. after   26 cycles
 Optimization completed.
    -- Stationary point found.
 Optimization completed.
 SCF Done:  E(UB3LYP) =  -1792.53296565     A.U. after   20 cycles
 SCF Done:  E(UB3LYP) =  -1792.53321410     A.U. after   20 cycles
 SCF Done:  E(UB3LYP) =  -1792.53322088     A.U. after   17 cycles
 SCF Done:  E(UB3LYP) =  -1792.53322186     A.U. after   18 cycles
 SCF Done:  E(UB3LYP) =  -1792.53322209     A.U. after   17 cycles
    -- Stationary point found.
 SCF Done:  E(UB3LYP) =  -1792.45405791     A.U. after   19 cycles
 SCF Done:  E(UB3LYP) =  -1792.45430675     A.U. after   18 cycles
 SCF Done:  E(UB3LYP) =  -1792.45433773     A.U. after   17 cycles
 SCF Done:  E(UB3LYP) =  -1792.45433839     A.U. after   15 cycles
 SCF Done:  E(UB3LYP) =  -1792.45433849     A.U. after   14 cycles
 Optimization completed.
    -- Stationary point found.

                         Standard orientation:
 ---------------------------------------------------------------------
 Center     Atomic      Atomic             Coordinates (Angstroms)
 Number     Number       Type             X           Y           Z
 ---------------------------------------------------------------------
      1         29           0        0.088925   -0.000002   -0.000210
      2          8           0        1.474128    0.000001    0.000263
      3          8           0       -1.742432    0.000000    0.000249
      4          1           0       -2.316561    0.791434    0.000293
      5          1           0       -2.316593   -0.791407    0.000448
      6          1           0        2.100361    0.777962    0.000703
      7          1           0        2.100387   -0.777937    0.000545
 ---------------------------------------------------------------------

 The electronic state is 2-A.
 Alpha  occ. eigenvalues -- -323.58989 -39.41508 -34.64360 -34.64055 -34.61230
 Alpha  occ. eigenvalues --  -19.72554 -19.63205  -4.94889  -3.48006  -3.45137
 Alpha  occ. eigenvalues --   -3.39919  -1.62739  -1.51205  -1.14777  -1.13036
 Alpha  occ. eigenvalues --   -1.04363  -1.02585  -0.95513  -0.89405  -0.89353
 Alpha  occ. eigenvalues --   -0.88191  -0.87059  -0.82006  -0.81047
 Alpha virt. eigenvalues --   -0.44690  -0.37439  -0.33796  -0.29094  -0.27204
 Alpha virt. eigenvalues --   -0.19618  -0.18016  -0.04862  -0.02674   0.02245
 Alpha virt. eigenvalues --    0.14726   0.26085   0.26244   0.28948   0.38878

  Beta  occ. eigenvalues -- -323.58988 -39.39452 -34.62107 -34.61842 -34.60699
  Beta  occ. eigenvalues --  -19.71885 -19.62856  -4.90769  -3.42205  -3.39337
  Beta  occ. eigenvalues --   -3.38577  -1.61175  -1.50397  -1.14016  -1.12423
  Beta  occ. eigenvalues --   -1.02317  -0.96297  -0.95163  -0.87457  -0.87282
  Beta  occ. eigenvalues --   -0.86297  -0.81032  -0.80553
  Beta virt. eigenvalues --   -0.65712  -0.44304  -0.37202  -0.33661  -0.28842
  Beta virt. eigenvalues --   -0.27130  -0.19436  -0.18066  -0.04815  -0.02476
  Beta virt. eigenvalues --    0.02338   0.16624   0.26402   0.27507   0.29222

 Mulliken charges and spin densities:
               1          2
     1  Cu   1.393448   0.673628
     2  O   -0.850987   0.236403
     3  O   -0.877295   0.114910
     4  H    0.571376  -0.003843
     5  H    0.571379  -0.003843
     6  H    0.596038  -0.008627
     7  H    0.596040  -0.008627
 Sum of Mulliken charges =   2.00000   1.00000

 Dipole moment (field-independent basis, Debye):
    X=              0.9903    Y=              0.0001    Z=              0.0023  Tot=              0.9903
 Quadrupole moment (field-independent basis, Debye-Ang):
   XX=             12.6927   YY=            -14.6371   ZZ=            -21.8989
   XY=              0.0000   XZ=              0.0029   YZ=              0.0000

 Normal termination of Gaussian 09 at Sat Jun 18 18:34:30 2016.
