 Gaussian 09, Revision D.01,
 Gaussian 09:  EM64L-G09RevD.01 24-Apr-2013

 -------------------------------------------------------
 #opt=(modredundant,maxcycles=350) B3LYP/6-311G* scf=xqc
 -------------------------------------------------------

 ---------
 cu2(h20)2
 ---------
 Symbolic Z-matrix:
 Charge =  2 Multiplicity = 2

 SCF Done:  E(UB3LYP) =  -1792.39813620     A.U. after   65 cycles
 SCF Done:  E(UB3LYP) =  -1792.49512933     a.u. after   21 cycles
 SCF Done:  E(UB3LYP) =  -1792.51802167     A.U. after   19 cycles
 SCF Done:  E(UB3LYP) =  -1792.54181802     A.U. after   25 cycles
 SCF Done:  E(UB3LYP) =  -1792.54401812     A.U. after   22 cycles
 SCF Done:  E(UB3LYP) =  -1792.54421362     A.U. after   22 cycles
 SCF Done:  E(UB3LYP) =  -1792.54422189     A.U. after   22 cycles
 SCF Done:  E(UB3LYP) =  -1792.54422568     A.U. after   49 cycles
 SCF Done:  E(UB3LYP) =  -1792.54423184     A.U. after   34 cycles
 SCF Done:  E(UB3LYP) =  -1792.54424550     A.U. after   26 cycles
 Optimization completed.
    -- Stationary point found.
 Optimization completed.
 SCF Done:  E(UB3LYP) =  -1792.59712532     A.U. after   17 cycles
 SCF Done:  E(UB3LYP) =  -1792.57479107     A.U. after   20 cycles
 SCF Done:  E(UB3LYP) =  -1792.57484977     A.U. after   18 cycles
 SCF Done:  E(UB3LYP) =  -1792.57485132     A.U. after   17 cycles
 SCF Done:  E(UB3LYP) =  -1792.57485147     A.U. after   16 cycles
 SCF Done:  E(UB3LYP) =  -1792.53061479     A.U. after   17 cycles
 SCF Done:  E(UB3LYP) =  -1792.53071490     A.U. after   15 cycles
    -- Stationary point found.
 SCF Done:  E(UB3LYP) =  -1792.45125502     A.U. after   16 cycles
 SCF Done:  E(UB3LYP) =  -1792.45142973     A.U. after   14 cycles
 SCF Done:  E(UB3LYP) =  -1792.45143016     A.U. after   15 cycles
 Optimization completed.
    -- Stationary point found.

                         Standard orientation:
 ---------------------------------------------------------------------
 Center     Atomic      Atomic             Coordinates (Angstroms)
 Number     Number       Type             X           Y           Z
 ---------------------------------------------------------------------
      1         29           0       -0.096263    0.000586   -0.153459
      2          8           0       -1.434109   -0.000775    0.205645
      3          8           0        1.718041   -0.000599    0.165625
      4          1           0        2.274148    0.789835    0.309645
      5          1           0        2.273389   -0.792399    0.304961
      6          1           0       -2.014136    0.777614    0.434857
      7          1           0       -2.013228   -0.781048    0.430692
 ---------------------------------------------------------------------

 The electronic state is 2-A.
 Alpha  occ. eigenvalues -- -323.58892 -39.41270 -34.64530 -34.63325 -34.61127
 Alpha  occ. eigenvalues --  -19.71888 -19.62794  -4.94787  -3.48428  -3.44353
 Alpha  occ. eigenvalues --   -3.40030  -1.62396  -1.50855  -1.14562  -1.12922
 Alpha  occ. eigenvalues --   -1.04223  -1.02322  -0.95012  -0.89560  -0.89347
 Alpha  occ. eigenvalues --   -0.88193  -0.86063  -0.82142  -0.80453
 Alpha virt. eigenvalues --   -0.45220  -0.37457  -0.33656  -0.30224  -0.27114
 Alpha virt. eigenvalues --   -0.19741  -0.18218  -0.04456  -0.02718   0.01818
 Alpha virt. eigenvalues --    0.14618   0.24130   0.28221   0.28991   0.39130

  Beta  occ. eigenvalues -- -323.58879 -39.39215 -34.62083 -34.61339 -34.60555
  Beta  occ. eigenvalues --  -19.71290 -19.62454  -4.90662  -3.42079  -3.39182
  Beta  occ. eigenvalues --   -3.38623  -1.60934  -1.50080  -1.13260  -1.12320
  Beta  occ. eigenvalues --   -1.02053  -0.97825  -0.94010  -0.87348  -0.87335
  Beta  occ. eigenvalues --   -0.86250  -0.81086  -0.80195
  Beta virt. eigenvalues --   -0.65002  -0.44731  -0.37199  -0.33498  -0.29951
  Beta virt. eigenvalues --   -0.27030  -0.19544  -0.18191  -0.04384  -0.02492
  Beta virt. eigenvalues --    0.01930   0.16266   0.24991   0.29284   0.29288

 Mulliken charges and spin densities:
               1          2
     1  Cu   1.421832   0.679098
     2  O   -0.859338   0.231604
     3  O   -0.888317   0.108844
     4  H    0.569056  -0.003008
     5  H    0.569003  -0.003008
     6  H    0.593901  -0.006762
     7  H    0.593862  -0.006768
 Sum of Mulliken charges =   2.00000   1.00000

 Dipole moment (field-independent basis, Debye):
    X=             -0.8410    Y=             -0.0066    Z=              1.5837  Tot=              1.7932
 Quadrupole moment (field-independent basis, Debye-Ang):
   XX=             10.0101   YY=            -14.5360   ZZ=            -20.3529
   XY=              0.0032   XZ=             -1.0768   YZ=              0.0146

 Normal termination of Gaussian 09 at Sat Jun 18 17:50:56 2016.
