 Gaussian 09, Revision D.01,
 Gaussian 09:  EM64L-G09RevD.01 24-Apr-2013

 -------------------------------------------------------
 #opt=(modredundant,maxcycles=350) B3LYP/6-311G* scf=xqc
 -------------------------------------------------------

 ---------
 cu2(h20)2
 ---------
 Symbolic Z-matrix:
 Charge =  2 Multiplicity = 2

 SCF Done:  E(UB3LYP) =  -1792.39865617     A.U. after   65 cycles
 SCF Done:  E(UB3LYP) =  -1792.49972662     a.u. after   44 cycles
 SCF Done:  E(UB3LYP) =  -1792.52234038     A.U. after   18 cycles
 SCF Done:  E(UB3LYP) =  -1792.54538663     A.U. after   19 cycles
 SCF Done:  E(UB3LYP) =  -1792.54738572     A.U. after   15 cycles
 SCF Done:  E(UB3LYP) =  -1792.54755196     A.U. after   16 cycles
 SCF Done:  E(UB3LYP) =  -1792.54755512     A.U. after   13 cycles
 SCF Done:  E(UB3LYP) =  -1792.54755541     A.U. after   13 cycles
 Optimization completed.
    -- Stationary point found.
 SCF Done:  E(UB3LYP) =  -1792.54683290     A.U. after   14 cycles
 Optimization completed.
 SCF Done:  E(UB3LYP) =  -1792.54621836     A.U. after   17 cycles
 SCF Done:  E(UB3LYP) =  -1792.57382634     A.U. after   17 cycles
 SCF Done:  E(UB3LYP) =  -1792.57382683     A.U. after   16 cycles
 SCF Done:  E(UB3LYP) =  -1792.57382689     A.U. after   16 cycles
 SCF Done:  E(UB3LYP) =  -1792.52947010     A.U. after   17 cycles
 SCF Done:  E(UB3LYP) =  -1792.52956089     A.U. after   16 cycles
 SCF Done:  E(UB3LYP) =  -1792.52956096     A.U. after   16 cycles
 SCF Done:  E(UB3LYP) =  -1792.52956093     A.U. after   15 cycles
    -- Stationary point found.
 SCF Done:  E(UB3LYP) =  -1792.44993657     A.U. after   16 cycles
 SCF Done:  E(UB3LYP) =  -1792.45010455     A.U. after   14 cycles
 SCF Done:  E(UB3LYP) =  -1792.45010514     A.U. after   14 cycles
 Optimization completed.
    -- Stationary point found.

                         Standard orientation:
 ---------------------------------------------------------------------
 Center     Atomic      Atomic             Coordinates (Angstroms)
 Number     Number       Type             X           Y           Z
 ---------------------------------------------------------------------
      1         29           0       -0.099446    0.182779    0.008464
      2          8           0       -1.415723   -0.248273   -0.011457
      3          8           0        1.707059   -0.195842   -0.009052
      4          1           0        2.255088   -0.400304    0.773351
      5          1           0        2.255479   -0.324376   -0.807175
      6          1           0       -1.979134   -0.474003   -0.802551
      7          1           0       -1.978192   -0.548980    0.754977
 ---------------------------------------------------------------------

 The electronic state is 2-A.
 Alpha  occ. eigenvalues -- -323.58849 -39.41187 -34.64469 -34.63205 -34.61072
 Alpha  occ. eigenvalues --  -19.71716 -19.62635  -4.94750  -3.48451  -3.44238
 Alpha  occ. eigenvalues --   -3.40034  -1.62299  -1.50723  -1.14492  -1.12883
 Alpha  occ. eigenvalues --   -1.04197  -1.02232  -0.94950  -0.89501  -0.89322
 Alpha  occ. eigenvalues --   -0.88199  -0.85775  -0.82163  -0.80234
 Alpha virt. eigenvalues --   -0.45453  -0.37483  -0.33623  -0.30664  -0.27081
 Alpha virt. eigenvalues --   -0.19776  -0.18292  -0.04277  -0.02755   0.01663
 Alpha virt. eigenvalues --    0.14463   0.23605   0.28888   0.28993   0.38457

  Beta  occ. eigenvalues -- -323.58832 -39.39127 -34.62007 -34.61226 -34.60495
  Beta  occ. eigenvalues --  -19.71134 -19.62297  -4.90616  -3.42022  -3.39131
  Beta  occ. eigenvalues --   -3.38619  -1.60860  -1.49957  -1.13041  -1.12283
  Beta  occ. eigenvalues --   -1.01959  -0.98082  -0.93851  -0.87312  -0.87264
  Beta  occ. eigenvalues --   -0.86245  -0.81222  -0.79952
  Beta virt. eigenvalues --   -0.64727  -0.44941  -0.37218  -0.33458  -0.30396
  Beta virt. eigenvalues --   -0.26991  -0.19578  -0.18247  -0.04195  -0.02518
  Beta virt. eigenvalues --    0.01783   0.16050   0.24529   0.29290   0.29975

 Mulliken charges and spin densities:
               1          2
     1  Cu   1.432448   0.680314
     2  O   -0.863102   0.230199
     3  O   -0.891979   0.107209
     4  H    0.568166  -0.002623
     5  H    0.568146  -0.002621
     6  H    0.593158  -0.006235
     7  H    0.593164  -0.006244
 Sum of Mulliken charges =   2.00000   1.00000

 Dipole moment (field-independent basis, Debye):
    X=             -0.7978    Y=             -1.8054    Z=             -0.0851  Tot=              1.9757
 Quadrupole moment (field-independent basis, Debye-Ang):
   XX=              8.9950   YY=            -19.7257   ZZ=            -14.5208
   XY=              1.1925   XZ=              0.0562   YZ=             -0.2543

 Normal termination of Gaussian 09 at Fri Jun 17 15:24:36 2016.
