 Gaussian 09, Revision D.01,
 Gaussian 09:  EM64L-G09RevD.01 24-Apr-2013

 -------------------------------------------------------
 #opt=(modredundant,maxcycles=350) B3LYP/6-311G* scf=xqc
 -------------------------------------------------------

 ---------
 cu2(h20)2
 ---------
 Symbolic Z-matrix:
 Charge =  2 Multiplicity = 2

 SCF Done:  E(UB3LYP) =  -1792.39638176     A.U. after   65 cycles
 SCF Done:  E(UB3LYP) =  -1792.49894485     a.u. after   39 cycles
 SCF Done:  E(UB3LYP) =  -1792.52163202     A.U. after   16 cycles
 SCF Done:  E(UB3LYP) =  -1792.54480767     A.U. after   17 cycles
 SCF Done:  E(UB3LYP) =  -1792.54685791     A.U. after   17 cycles
 SCF Done:  E(UB3LYP) =  -1792.54703011     A.U. after   14 cycles
 SCF Done:  E(UB3LYP) =  -1792.54703430     A.U. after   13 cycles
 SCF Done:  E(UB3LYP) =  -1792.54703480     A.U. after   13 cycles
 Optimization completed.
    -- Stationary point found.
 SCF Done:  E(UB3LYP) =  -1792.54642036     A.U. after   17 cycles
 Optimization completed.
 SCF Done:  E(UB3LYP) =  -1792.54575289     A.U. after   15 cycles
 SCF Done:  E(UB3LYP) =  -1792.56679491     A.U. after   15 cycles
 SCF Done:  E(UB3LYP) =  -1792.56679544     A.U. after   15 cycles
 SCF Done:  E(UB3LYP) =  -1792.56679572     A.U. after   10 cycles
 SCF Done:  E(UB3LYP) =  -1792.52118375     A.U. after   15 cycles
 SCF Done:  E(UB3LYP) =  -1792.52126778     A.U. after   14 cycles
 SCF Done:  E(UB3LYP) =  -1792.52126795     A.U. after   11 cycles
    -- Stationary point found.
 SCF Done:  E(UB3LYP) =  -1792.44004669     A.U. after   15 cycles
 SCF Done:  E(UB3LYP) =  -1792.44020722     A.U. after   14 cycles
 SCF Done:  E(UB3LYP) =  -1792.44020736     A.U. after   14 cycles
 SCF Done:  E(UB3LYP) =  -1792.44020754     A.U. after   14 cycles
 Optimization completed.
    -- Stationary point found.

                         Standard orientation:
 ---------------------------------------------------------------------
 Center     Atomic      Atomic             Coordinates (Angstroms)
 Number     Number       Type             X           Y           Z
 ---------------------------------------------------------------------
      1         29           0       -0.130230    0.320095    0.000016
      2          8           0       -1.266651   -0.471950   -0.000017
      3          8           0        1.630181   -0.324992   -0.000022
      4          1           0        2.149075   -0.559018   -0.792014
      5          1           0        2.149058   -0.559159    0.791942
      6          1           0       -1.714971   -0.894336   -0.781425
      7          1           0       -1.714732   -0.894697    0.781334
 ---------------------------------------------------------------------

 The electronic state is 2-A.
 Alpha  occ. eigenvalues -- -323.58464 -39.40545 -34.63889 -34.62429 -34.60590
 Alpha  occ. eigenvalues --  -19.70606 -19.61535  -4.94397  -3.48335  -3.43563
 Alpha  occ. eigenvalues --   -3.39914  -1.61628  -1.49763  -1.14107  -1.12556
 Alpha  occ. eigenvalues --   -1.03188  -1.01572  -0.95710  -0.89017  -0.88173
 Alpha  occ. eigenvalues --   -0.88019  -0.84494  -0.81668  -0.79045
 Alpha virt. eigenvalues --   -0.47310  -0.37770  -0.33369  -0.32805  -0.26804
 Alpha virt. eigenvalues --   -0.19976  -0.18652  -0.03341  -0.02893   0.01310
 Alpha virt. eigenvalues --    0.13060   0.20981   0.28954   0.33909   0.34771

  Beta  occ. eigenvalues -- -323.58434 -39.38466 -34.61380 -34.60456 -34.59993
  Beta  occ. eigenvalues --  -19.70109 -19.61195  -4.90229  -3.41580  -3.38715
  Beta  occ. eigenvalues --   -3.38475  -1.60316  -1.49043  -1.11960  -1.11671
  Beta  occ. eigenvalues --   -1.01267  -0.98570  -0.94007  -0.87022  -0.86168
  Beta  occ. eigenvalues --   -0.85898  -0.81735  -0.78718
  Beta virt. eigenvalues --   -0.63138  -0.46617  -0.37465  -0.33155  -0.32596
  Beta virt. eigenvalues --   -0.26671  -0.19770  -0.18494  -0.03018  -0.02739
  Beta virt. eigenvalues --    0.01460   0.14361   0.22229   0.29267   0.34213

 Mulliken charges and spin densities:
               1          2
     1  Cu   1.491812   0.686149
     2  O   -0.882027   0.221516
     3  O   -0.911116   0.097901
     4  H    0.562313   0.000332
     5  H    0.562313   0.000333
     6  H    0.588354  -0.003114
     7  H    0.588351  -0.003118
 Sum of Mulliken charges =   2.00000   1.00000

 Dipole moment (field-independent basis, Debye):
    X=             -0.4431    Y=             -2.3757    Z=             -0.0002  Tot=              2.4167
 Quadrupole moment (field-independent basis, Debye-Ang):
   XX=              2.8717   YY=            -15.8379   ZZ=            -14.3466
   XY=              1.7009   XZ=              0.0006   YZ=             -0.0009

 Normal termination of Gaussian 09 at Fri Jun 17 13:51:20 2016.
