 Gaussian 09, Revision D.01,
 Gaussian 09:  EM64L-G09RevD.01 24-Apr-2013

 -------------------------------------------------------
 #opt=(modredundant,maxcycles=350) B3LYP/6-311G* scf=xqc
 -------------------------------------------------------

 ---------
 cu2(h20)2
 ---------
 Symbolic Z-matrix:
 Charge =  2 Multiplicity = 2

 SCF Done:  E(UB3LYP) =  -1792.35189862     A.U. after   65 cycles
 SCF Done:  E(UB3LYP) =  -1792.49952464     a.u. after   39 cycles
 SCF Done:  E(UB3LYP) =  -1792.52215583     A.U. after   19 cycles
 SCF Done:  E(UB3LYP) =  -1792.54522006     A.U. after   20 cycles
 SCF Done:  E(UB3LYP) =  -1792.54725635     A.U. after   17 cycles
 SCF Done:  E(UB3LYP) =  -1792.54742879     A.U. after   16 cycles
 SCF Done:  E(UB3LYP) =  -1792.54743256     A.U. after   13 cycles
 SCF Done:  E(UB3LYP) =  -1792.54743294     A.U. after   13 cycles
 Optimization completed.
    -- Stationary point found.
 SCF Done:  E(UB3LYP) =  -1792.54673764     A.U. after   17 cycles
 SCF Done:  E(UB3LYP) =  -1792.54673789     A.U. after   13 cycles
 Optimization completed.
 SCF Done:  E(UB3LYP) =  -1792.57137769     A.U. after   15 cycles
 SCF Done:  E(UB3LYP) =  -1792.57137821     A.U. after   16 cycles
 SCF Done:  E(UB3LYP) =  -1792.52663280     A.U. after   16 cycles
 SCF Done:  E(UB3LYP) =  -1792.52671581     A.U. after   15 cycles
 SCF Done:  E(UB3LYP) =  -1792.52671602     A.U. after   15 cycles
 SCF Done:  E(UB3LYP) =  -1792.52671608     A.U. after   15 cycles
    -- Stationary point found.
 SCF Done:  E(UB3LYP) =  -1792.44661251     A.U. after   15 cycles
 SCF Done:  E(UB3LYP) =  -1792.44677096     A.U. after   14 cycles
 SCF Done:  E(UB3LYP) =  -1792.44677128     A.U. after   14 cycles
 SCF Done:  E(UB3LYP) =  -1792.44677168     A.U. after   14 cycles
 Optimization completed.
    -- Stationary point found.

                         Standard orientation:
 ---------------------------------------------------------------------
 Center     Atomic      Atomic             Coordinates (Angstroms)
 Number     Number       Type             X           Y           Z
 ---------------------------------------------------------------------
      1         29           0       -0.108190    0.240228    0.000002
      2          8           0       -1.368075   -0.335513   -0.000001
      3          8           0        1.679801   -0.253632   -0.000002
      4          1           0        2.213193   -0.459474   -0.791413
      5          1           0        2.213171   -0.459501    0.791414
      6          1           0       -1.891320   -0.667221   -0.780297
      7          1           0       -1.891346   -0.667250    0.780264
 ---------------------------------------------------------------------

 The electronic state is 2-A.
 Alpha  occ. eigenvalues -- -323.58725 -39.40971 -34.64284 -34.62930 -34.60917
 Alpha  occ. eigenvalues --  -19.71320 -19.62250  -4.94642  -3.48446  -3.43994
 Alpha  occ. eigenvalues --   -3.40014  -1.62069  -1.50397  -1.14343  -1.12779
 Alpha  occ. eigenvalues --   -1.03996  -1.02009  -0.95052  -0.89234  -0.89113
 Alpha  occ. eigenvalues --   -0.88202  -0.85216  -0.82109  -0.79754
 Alpha virt. eigenvalues --   -0.46056  -0.37564  -0.33540  -0.31611  -0.26995
 Alpha virt. eigenvalues --   -0.19848  -0.18453  -0.03819  -0.02910   0.01399
 Alpha virt. eigenvalues --    0.13985   0.22508   0.28990   0.30666   0.36394

  Beta  occ. eigenvalues -- -323.58703 -39.38901 -34.61797 -34.60955 -34.60330
  Beta  occ. eigenvalues --  -19.70773 -19.61913  -4.90491  -3.41873  -3.38994
  Beta  occ. eigenvalues --   -3.38585  -1.60681  -1.49650  -1.12539  -1.12181
  Beta  occ. eigenvalues --   -1.01727  -0.98435  -0.93759  -0.87229  -0.86900
  Beta  occ. eigenvalues --   -0.86227  -0.81483  -0.79442
  Beta virt. eigenvalues --   -0.64104  -0.45485  -0.37282  -0.33357  -0.31362
  Beta virt. eigenvalues --   -0.26890  -0.19646  -0.18366  -0.03712  -0.02642
  Beta virt. eigenvalues --    0.01534   0.15448   0.23560   0.29293   0.31778

 Mulliken charges and spin densities:
               1          2
     1  Cu   1.456194   0.682991
     2  O   -0.871290   0.226874
     3  O   -0.900002   0.103529
     4  H    0.566107  -0.001625
     5  H    0.566106  -0.001625
     6  H    0.591441  -0.005072
     7  H    0.591444  -0.005072
 Sum of Mulliken charges =   2.00000   1.00000

 Dipole moment (field-independent basis, Debye):
    X=             -0.6870    Y=             -2.1461    Z=             -0.0001  Tot=              2.2534
 Quadrupole moment (field-independent basis, Debye-Ang):
   XX=              6.6766   YY=            -18.3016   ZZ=            -14.4472
   XY=              1.4224   XZ=              0.0000   YZ=             -0.0001

 Normal termination of Gaussian 09 at Fri Jun 17 15:16:42 2016.
