 Gaussian 09, Revision D.01,
 Gaussian 09:  EM64L-G09RevD.01 24-Apr-2013

 -------------------------------------------------------
 #opt=(modredundant,maxcycles=350) B3LYP/6-311G* scf=xqc
 -------------------------------------------------------

 ---------
 cu2(h20)2
 ---------
 Symbolic Z-matrix:
 Charge =  2 Multiplicity = 2

 SCF Done:  E(UB3LYP) =  -1792.21440804     A.U. after   65 cycles
 SCF Done:  E(UB3LYP) =  -1792.49431874     a.u. after   22 cycles
 SCF Done:  E(UB3LYP) =  -1792.51744842     A.U. after   20 cycles
 SCF Done:  E(UB3LYP) =  -1792.54136511     A.U. after   20 cycles
 SCF Done:  E(UB3LYP) =  -1792.54356464     A.U. after   22 cycles
 SCF Done:  E(UB3LYP) =  -1792.54374419     A.U. after   17 cycles
 SCF Done:  E(UB3LYP) =  -1792.54374932     A.U. after   17 cycles
 SCF Done:  E(UB3LYP) =  -1792.54375078     A.U. after   20 cycles
 SCF Done:  E(UB3LYP) =  -1792.54375270     A.U. after   20 cycles
 SCF Done:  E(UB3LYP) =  -1792.54375504     A.U. after   26 cycles
 Optimization completed on the basis of negligible forces.
    -- Stationary point found.
 Optimization completed.
 SCF Done:  E(UB3LYP) =  -1792.59156229     A.U. after   16 cycles
 SCF Done:  E(UB3LYP) =  -1792.56840937     A.U. after   17 cycles
 SCF Done:  E(UB3LYP) =  -1792.56845483     A.U. after   15 cycles
 SCF Done:  E(UB3LYP) =  -1792.56845494     A.U. after   14 cycles
 SCF Done:  E(UB3LYP) =  -1792.52316488     A.U. after   15 cycles
 SCF Done:  E(UB3LYP) =  -1792.52324638     A.U. after   14 cycles
 SCF Done:  E(UB3LYP) =  -1792.52324693     A.U. after   15 cycles
    -- Stationary point found.
 SCF Done:  E(UB3LYP) =  -1792.44243998     A.U. after   15 cycles
 SCF Done:  E(UB3LYP) =  -1792.44259865     A.U. after   14 cycles
 SCF Done:  E(UB3LYP) =  -1792.44259896     A.U. after   13 cycles
 Optimization completed.
    -- Stationary point found.

                         Standard orientation:
 ---------------------------------------------------------------------
 Center     Atomic      Atomic             Coordinates (Angstroms)
 Number     Number       Type             X           Y           Z
 ---------------------------------------------------------------------
      1         29           0       -0.121360    0.294451   -0.000070
      2          8           0       -1.304837   -0.425390    0.000081
      3          8           0        1.647506   -0.303942    0.000087
      4          1           0        2.169437   -0.533616   -0.791598
      5          1           0        2.169418   -0.533052    0.791953
      6          1           0       -1.780830   -0.818166    0.781147
      7          1           0       -1.779930   -0.819588   -0.780808
 ---------------------------------------------------------------------

 The electronic state is 2-A.
 Alpha  occ. eigenvalues -- -323.58557 -39.40696 -34.64030 -34.62603 -34.60707
 Alpha  occ. eigenvalues --  -19.70856 -19.61789  -4.94487  -3.48382  -3.43714
 Alpha  occ. eigenvalues --   -3.39955  -1.61786  -1.49992  -1.14187  -1.12638
 Alpha  occ. eigenvalues --   -1.03526  -1.01732  -0.95443  -0.89097  -0.88419
 Alpha  occ. eigenvalues --   -0.88186  -0.84725  -0.81863  -0.79271
 Alpha virt. eigenvalues --   -0.46849  -0.37692  -0.33431  -0.32469  -0.26877
 Alpha virt. eigenvalues --   -0.19930  -0.18597  -0.03231  -0.03184   0.01291
 Alpha virt. eigenvalues --    0.13359   0.21449   0.28972   0.33131   0.34744

  Beta  occ. eigenvalues -- -323.58529 -39.38619 -34.61526 -34.60629 -34.60113
  Beta  occ. eigenvalues --  -19.70344 -19.61451  -4.90322  -3.41682  -3.38814
  Beta  occ. eigenvalues --   -3.38517  -1.60450  -1.49263  -1.12042  -1.11970
  Beta  occ. eigenvalues --   -1.01435  -0.98569  -0.93905  -0.87098  -0.86275
  Beta  occ. eigenvalues --   -0.86191  -0.81677  -0.78946
  Beta virt. eigenvalues --   -0.63451  -0.46200  -0.37392  -0.33228  -0.32247
  Beta virt. eigenvalues --   -0.26753  -0.19725  -0.18463  -0.03094  -0.02879
  Beta virt. eigenvalues --    0.01437   0.14708   0.22632   0.29281   0.34127

 Mulliken charges and spin densities:
               1          2
     1  Cu   1.480478   0.685344
     2  O   -0.878973   0.223176
     3  O   -0.907738   0.099778
     4  H    0.563677  -0.000373
     5  H    0.563671  -0.000378
     6  H    0.589453  -0.003766
     7  H    0.589433  -0.003782
 Sum of Mulliken charges =   2.00000   1.00000

 Dipole moment (field-independent basis, Debye):
    X=             -0.5371    Y=             -2.3357    Z=              0.0008  Tot=              2.3967
 Quadrupole moment (field-independent basis, Debye-Ang):
   XX=              4.1533   YY=            -16.6830   ZZ=            -14.3803
   XY=              1.6171   XZ=             -0.0021   YZ=              0.0034

 Normal termination of Gaussian 09 at Fri Jun 17 14:10:38 2016.
