 Gaussian 09, Revision D.01,
 Gaussian 09:  EM64L-G09RevD.01 24-Apr-2013

 -------------------------------------------------------
 #opt=(modredundant,maxcycles=350) B3LYP/6-311G* scf=xqc
 -------------------------------------------------------

 ---------
 cu2(h20)2
 ---------
 Symbolic Z-matrix:
 Charge =  2 Multiplicity = 2

 SCF Done:  E(UB3LYP) =  -1792.39148308     A.U. after   65 cycles
 SCF Done:  E(UB3LYP) =  -1792.49224947     a.u. after   19 cycles
 SCF Done:  E(UB3LYP) =  -1792.51549182     A.U. after   27 cycles
 SCF Done:  E(UB3LYP) =  -1792.53970089     A.U. after   24 cycles
 SCF Done:  E(UB3LYP) =  -1792.54189904     A.U. after   23 cycles
 SCF Done:  E(UB3LYP) =  -1792.54207807     A.U. after   21 cycles
 SCF Done:  E(UB3LYP) =  -1792.54208380     A.U. after   20 cycles
 SCF Done:  E(UB3LYP) =  -1792.54208442     A.U. after   21 cycles
 SCF Done:  E(UB3LYP) =  -1792.54208470     A.U. after   16 cycles
 SCF Done:  E(UB3LYP) =  -1792.54208578     A.U. after   21 cycles
 Optimization stopped.
                           ! Non-Optimized Parameters !
 Optimization completed.
 SCF Done:  E(UB3LYP) =  -1792.55415484     A.U. after   14 cycles
 SCF Done:  E(UB3LYP) =  -1792.50683946     A.U. after   15 cycles
 SCF Done:  E(UB3LYP) =  -1792.50696886     A.U. after   15 cycles
 SCF Done:  E(UB3LYP) =  -1792.50696928     A.U. after   14 cycles
 SCF Done:  E(UB3LYP) =  -1792.50696954     A.U. after   13 cycles
    -- Stationary point found.
 SCF Done:  E(UB3LYP) =  -1792.42378120     A.U. after   15 cycles
 SCF Done:  E(UB3LYP) =  -1792.42399545     A.U. after   14 cycles
 SCF Done:  E(UB3LYP) =  -1792.42399865     A.U. after   14 cycles
 SCF Done:  E(UB3LYP) =  -1792.42399883     A.U. after   13 cycles
 SCF Done:  E(UB3LYP) =  -1792.42399889     A.U. after   13 cycles
 Optimization completed.
    -- Stationary point found.

                         Standard orientation:
 ---------------------------------------------------------------------
 Center     Atomic      Atomic             Coordinates (Angstroms)
 Number     Number       Type             X           Y           Z
 ---------------------------------------------------------------------
      1         29           0       -0.220939    0.419951   -0.001362
      2          8           0       -0.978110   -0.739911   -0.015494
      3          8           0        1.558908   -0.340692    0.011311
      4          1           0        2.049536   -0.590559    0.814504
      5          1           0        2.172362   -0.355972   -0.745708
      6          1           0       -1.442044   -1.175113    0.747436
      7          1           0       -1.019015   -1.412118   -0.743268
 ---------------------------------------------------------------------

 The electronic state is 2-A.
 Alpha  occ. eigenvalues -- -323.58153 -39.39920 -34.63358 -34.61672 -34.60113
 Alpha  occ. eigenvalues --  -19.69217 -19.60131  -4.94016  -3.48218  -3.42832
 Alpha  occ. eigenvalues --   -3.39758  -1.60740  -1.48485  -1.13648  -1.12075
 Alpha  occ. eigenvalues --   -1.01288  -1.00387  -0.96501  -0.88755  -0.88296
 Alpha  occ. eigenvalues --   -0.86572  -0.82780  -0.80377  -0.78452
 Alpha virt. eigenvalues --   -0.49940  -0.37994  -0.33421  -0.32880  -0.26360
 Alpha virt. eigenvalues --   -0.20328  -0.17915  -0.04204  -0.00515   0.01815
 Alpha virt. eigenvalues --    0.14082   0.20043   0.28108   0.31470   0.41955

  Beta  occ. eigenvalues -- -323.58111 -39.37861 -34.60840 -34.59777 -34.59491
  Beta  occ. eigenvalues --  -19.68768 -19.59772  -4.89888  -3.41250  -3.38420
  Beta  occ. eigenvalues --   -3.38248  -1.59492  -1.47800  -1.11461  -1.10206
  Beta  occ. eigenvalues --   -1.00208  -0.98693  -0.93131  -0.86898  -0.86245
  Beta  occ. eigenvalues --   -0.84241  -0.81159  -0.78047
  Beta virt. eigenvalues --   -0.62205  -0.48985  -0.37690  -0.33232  -0.32619
  Beta virt. eigenvalues --   -0.26173  -0.20118  -0.17612  -0.03908  -0.00265
  Beta virt. eigenvalues --    0.01973   0.15239   0.21562   0.28515   0.31991

 Mulliken charges and spin densities:
               1          2
     1  Cu   1.527163   0.682156
     2  O   -0.882362   0.219705
     3  O   -0.914512   0.090008
     4  H    0.551788   0.002934
     5  H    0.553174   0.005095
     6  H    0.583364   0.003069
     7  H    0.581384  -0.002968
 Sum of Mulliken charges =   2.00000   1.00000

 Dipole moment (field-independent basis, Debye):
    X=              0.3046    Y=             -1.9269    Z=              0.2173  Tot=              1.9629
 Quadrupole moment (field-independent basis, Debye-Ang):
   XX=             -2.6367   YY=            -11.6842   ZZ=            -14.6994
   XY=              1.9711   XZ=             -1.0402   YZ=             -0.1679

 Normal termination of Gaussian 09 at Fri Jun 17 12:57:14 2016.
