 Gaussian 09, Revision D.01,
 Gaussian 09:  EM64L-G09RevD.01 24-Apr-2013

 -------------------------------------------------------
 #opt=(modredundant,maxcycles=350) B3LYP/6-311G* scf=xqc
 -------------------------------------------------------

 ---------
 cu2(h20)2
 ---------
 Symbolic Z-matrix:
 Charge =  2 Multiplicity = 2

 SCF Done:  E(UB3LYP) =  -1792.39513415     A.U. after   65 cycles
 SCF Done:  E(UB3LYP) =  -1792.49839767     a.u. after   39 cycles
 SCF Done:  E(UB3LYP) =  -1792.52114150     A.U. after   17 cycles
 SCF Done:  E(UB3LYP) =  -1792.54443420     A.U. after   20 cycles
 SCF Done:  E(UB3LYP) =  -1792.54648553     A.U. after   17 cycles
 SCF Done:  E(UB3LYP) =  -1792.54664595     A.U. after   15 cycles
 SCF Done:  E(UB3LYP) =  -1792.54664955     A.U. after   13 cycles
 SCF Done:  E(UB3LYP) =  -1792.54665008     A.U. after   12 cycles
 Optimization completed.
    -- Stationary point found.
 SCF Done:  E(UB3LYP) =  -1792.54595295     A.U. after   17 cycles
 SCF Done:  E(UB3LYP) =  -1792.54595527     A.U. after   13 cycles
 Optimization completed.
    -- Stationary point found.
 SCF Done:  E(UB3LYP) =  -1792.43079567     A.U. after   10 cycles
 SCF Done:  E(UB3LYP) =  -1792.43142460     A.U. after   18 cycles
 SCF Done:  E(UB3LYP) =  -1792.42699036     A.U. after   18 cycles
 SCF Done:  E(UB3LYP) =  -1792.43189154     A.U. after   15 cycles
 SCF Done:  E(UB3LYP) =  -1792.43336384     A.U. after   16 cycles
 SCF Done:  E(UB3LYP) =  -1792.43465846     A.U. after   18 cycles
 SCF Done:  E(UB3LYP) =  -1792.43466657     A.U. after   15 cycles
 SCF Done:  E(UB3LYP) =  -1792.43470459     A.U. after   13 cycles
 SCF Done:  E(UB3LYP) =  -1792.43470512     A.U. after   13 cycles
 SCF Done:  E(UB3LYP) =  -1792.43470528     A.U. after   13 cycles
 Optimization completed.
    -- Stationary point found.

                         Standard orientation:
 ---------------------------------------------------------------------
 Center     Atomic      Atomic             Coordinates (Angstroms)
 Number     Number       Type             X           Y           Z
 ---------------------------------------------------------------------
      1         29           0       -0.154545    0.367278   -0.000004
      2          8           0       -1.174415   -0.570086    0.000074
      3          8           0        1.595376   -0.354480   -0.000027
      4          1           0        2.116044   -0.580212   -0.792430
      5          1           0        2.116919   -0.578976    0.792181
      6          1           0       -1.558896   -1.048218    0.782118
      7          1           0       -1.559961   -1.047138   -0.782136
 ---------------------------------------------------------------------

 The electronic state is 2-A.
 Alpha  occ. eigenvalues -- -323.58290 -39.40251 -34.63613 -34.62091 -34.60363
 Alpha  occ. eigenvalues --  -19.70082 -19.60986  -4.94215  -3.48235  -3.43263
 Alpha  occ. eigenvalues --   -3.39830  -1.61293  -1.49264  -1.13946  -1.12373
 Alpha  occ. eigenvalues --   -1.02365  -1.01207  -0.96271  -0.88852  -0.88150
 Alpha  occ. eigenvalues --   -0.87282  -0.83972  -0.81179  -0.78663
 Alpha virt. eigenvalues --   -0.48321  -0.37924  -0.33232  -0.33228  -0.26633
 Alpha virt. eigenvalues --   -0.20081  -0.18703  -0.03544  -0.02145   0.01445
 Alpha virt. eigenvalues --    0.12716   0.20280   0.28896   0.32688   0.38055

  Beta  occ. eigenvalues -- -323.58255 -39.38172 -34.61099 -34.60125 -34.59761
  Beta  occ. eigenvalues --  -19.69611 -19.60641  -4.90049  -3.41391  -3.38521
  Beta  occ. eigenvalues --   -3.38389  -1.60018  -1.48562  -1.11773  -1.11080
  Beta  occ. eigenvalues --   -1.00884  -0.98534  -0.94077  -0.86873  -0.86128
  Beta  occ. eigenvalues --   -0.85132  -0.81733  -0.78331
  Beta virt. eigenvalues --   -0.62588  -0.47536  -0.37614  -0.33042  -0.32994
  Beta virt. eigenvalues --   -0.26477  -0.19874  -0.18494  -0.03203  -0.01958
  Beta virt. eigenvalues --    0.01602   0.13943   0.21644   0.29219   0.33060

 Mulliken charges and spin densities:
               1          2
     1  Cu   1.511078   0.686543
     2  O   -0.885550   0.219245
     3  O   -0.916024   0.094185
     4  H    0.559196   0.001866
     5  H    0.559233   0.001882
     6  H    0.586034  -0.001871
     7  H    0.586033  -0.001849
 Sum of Mulliken charges =   2.00000   1.00000

 Dipole moment (field-independent basis, Debye):
    X=             -0.2082    Y=             -2.3439    Z=             -0.0008  Tot=              2.3531
 Quadrupole moment (field-independent basis, Debye-Ang):
   XX=              0.3767   YY=            -14.1487   ZZ=            -14.2857
   XY=              1.8404   XZ=              0.0041   YZ=              0.0009

 Normal termination of Gaussian 09 at Fri Jun 17 13:41:49 2016.
