 Gaussian 09, Revision D.01,
 Gaussian 09:  EM64L-G09RevD.01 24-Apr-2013

 -------------------------------------------------------
 #opt=(modredundant,maxcycles=350) B3LYP/6-311G* scf=xqc
 -------------------------------------------------------

 ---------
 cu2(h20)2
 ---------
 Symbolic Z-matrix:
 Charge =  2 Multiplicity = 2

 SCF Done:  E(UB3LYP) =  -1792.39699412     A.U. after   65 cycles
 SCF Done:  E(UB3LYP) =  -1792.49487821     a.u. after   19 cycles
 SCF Done:  E(UB3LYP) =  -1792.51796140     A.U. after   20 cycles
 SCF Done:  E(UB3LYP) =  -1792.54181740     A.U. after   20 cycles
 SCF Done:  E(UB3LYP) =  -1792.54402210     A.U. after   22 cycles
 SCF Done:  E(UB3LYP) =  -1792.54420185     A.U. after   21 cycles
 SCF Done:  E(UB3LYP) =  -1792.54420709     A.U. after   20 cycles
 SCF Done:  E(UB3LYP) =  -1792.54420971     A.U. after   23 cycles
 SCF Done:  E(UB3LYP) =  -1792.54421569     A.U. after   26 cycles
 SCF Done:  E(UB3LYP) =  -1792.54422782     A.U. after   30 cycles
 Optimization completed.
    -- Stationary point found.
 Optimization completed.
 SCF Done:  E(UB3LYP) =  -1792.59517711     A.U. after   16 cycles
 SCF Done:  E(UB3LYP) =  -1792.57262149     A.U. after   16 cycles
 SCF Done:  E(UB3LYP) =  -1792.57266770     A.U. after   15 cycles
 SCF Done:  E(UB3LYP) =  -1792.57266795     A.U. after   16 cycles
 SCF Done:  E(UB3LYP) =  -1792.52813906     A.U. after   16 cycles
 SCF Done:  E(UB3LYP) =  -1792.52822501     A.U. after   14 cycles
    -- Stationary point found.
 SCF Done:  E(UB3LYP) =  -1792.44838855     A.U. after   16 cycles
 SCF Done:  E(UB3LYP) =  -1792.44855085     A.U. after   14 cycles
 SCF Done:  E(UB3LYP) =  -1792.44855106     A.U. after   14 cycles
 SCF Done:  E(UB3LYP) =  -1792.44855151     A.U. after   13 cycles
 Optimization completed.
    -- Stationary point found.

                         Standard orientation:
 ---------------------------------------------------------------------
 Center     Atomic      Atomic             Coordinates (Angstroms)
 Number     Number       Type             X           Y           Z
 ---------------------------------------------------------------------
      1         29           0       -0.103364    0.211929   -0.000037
      2          8           0       -1.393752   -0.291743    0.000048
      3          8           0        1.694194   -0.225537    0.000035
      4          1           0        2.234803   -0.413415    0.791391
      5          1           0        2.234878   -0.413746   -0.791191
      6          1           0       -1.937802   -0.590498   -0.779851
      7          1           0       -1.937867   -0.590060    0.780054
 ---------------------------------------------------------------------

 The electronic state is 2-A.
 Alpha  occ. eigenvalues -- -323.58793 -39.41087 -34.64387 -34.63074 -34.61002
 Alpha  occ. eigenvalues --  -19.71527 -19.62453  -4.94702  -3.48456  -3.44120
 Alpha  occ. eigenvalues --   -3.40029  -1.62191  -1.50570  -1.14419  -1.12835
 Alpha  occ. eigenvalues --   -1.04126  -1.02127  -0.94961  -0.89353  -0.89284
 Alpha  occ. eigenvalues --   -0.88202  -0.85489  -0.82157  -0.79998
 Alpha virt. eigenvalues --   -0.45731  -0.37518  -0.33585  -0.31136  -0.27042
 Alpha virt. eigenvalues --   -0.19811  -0.18372  -0.04065  -0.02816   0.01517
 Alpha virt. eigenvalues --    0.14251   0.23060   0.28993   0.29696   0.37384

  Beta  occ. eigenvalues -- -323.58774 -39.39022 -34.61911 -34.61098 -34.60420
  Beta  occ. eigenvalues --  -19.70962 -19.62116  -4.90559  -3.41954  -3.39068
  Beta  occ. eigenvalues --   -3.38607  -1.60777  -1.49813  -1.12800  -1.12236
  Beta  occ. eigenvalues --   -1.01850  -0.98286  -0.93768  -0.87277  -0.87117
  Beta  occ. eigenvalues --   -0.86238  -0.81358  -0.79698
  Beta virt. eigenvalues --   -0.64424  -0.45191  -0.37245  -0.33411  -0.30875
  Beta virt. eigenvalues --   -0.26945  -0.19611  -0.18307  -0.03971  -0.02565
  Beta virt. eigenvalues --    0.01645   0.15776   0.24047   0.29293   0.30799

 Mulliken charges and spin densities:
               1          2
     1  Cu   1.444041   0.681642
     2  O   -0.867140   0.228626
     3  O   -0.895942   0.105402
     4  H    0.567178  -0.002158
     5  H    0.567186  -0.002157
     6  H    0.592340  -0.005678
     7  H    0.592338  -0.005676
 Sum of Mulliken charges =   2.00000   1.00000

 Dipole moment (field-independent basis, Debye):
    X=             -0.7465    Y=             -1.9955    Z=              0.0005  Tot=              2.1306
 Quadrupole moment (field-independent basis, Debye-Ang):
   XX=              7.8740   YY=            -19.0492   ZZ=            -14.4788
   XY=              1.3122   XZ=             -0.0003   YZ=              0.0013

 Normal termination of Gaussian 09 at Fri Jun 17 15:41:52 2016.
