 Gaussian 09, Revision D.01,
 Gaussian 09:  EM64L-G09RevD.01 24-Apr-2013

 -------------------------------------------------------
 #opt=(modredundant,maxcycles=350) B3LYP/6-311G* scf=xqc
 -------------------------------------------------------

 ---------
 cu2(h20)2
 ---------
 Symbolic Z-matrix:
 Charge =  2 Multiplicity = 2

 SCF Done:  E(UB3LYP) =  -1792.39810111     A.U. after   65 cycles
 SCF Done:  E(UB3LYP) =  -1792.49509889     a.u. after   20 cycles
 SCF Done:  E(UB3LYP) =  -1792.51810602     A.U. after   21 cycles
 SCF Done:  E(UB3LYP) =  -1792.54193906     A.U. after   21 cycles
 SCF Done:  E(UB3LYP) =  -1792.54410525     A.U. after   24 cycles
 SCF Done:  E(UB3LYP) =  -1792.54429072     A.U. after   21 cycles
 SCF Done:  E(UB3LYP) =  -1792.54429896     A.U. after   20 cycles
 SCF Done:  E(UB3LYP) =  -1792.54430349     A.U. after   33 cycles
 SCF Done:  E(UB3LYP) =  -1792.54431100     A.U. after   21 cycles
 SCF Done:  E(UB3LYP) =  -1792.54432375     A.U. after   24 cycles
 Optimization completed.
    -- Stationary point found.
 Optimization completed.
 SCF Done:  E(UB3LYP) =  -1792.57565115     A.U. after   19 cycles
 SCF Done:  E(UB3LYP) =  -1792.57574516     A.U. after   19 cycles
 SCF Done:  E(UB3LYP) =  -1792.57574679     A.U. after   17 cycles
 SCF Done:  E(UB3LYP) =  -1792.53155557     A.U. after   18 cycles
 SCF Done:  E(UB3LYP) =  -1792.53167780     A.U. after   17 cycles
 SCF Done:  E(UB3LYP) =  -1792.53167896     A.U. after   15 cycles
    -- Stationary point found.
 SCF Done:  E(UB3LYP) =  -1792.45234002     A.U. after   16 cycles
 SCF Done:  E(UB3LYP) =  -1792.45252307     A.U. after   16 cycles
 SCF Done:  E(UB3LYP) =  -1792.45252594     A.U. after   16 cycles
 SCF Done:  E(UB3LYP) =  -1792.45252646     A.U. after   15 cycles
 Optimization completed.
    -- Stationary point found.

                         Standard orientation:
 ---------------------------------------------------------------------
 Center     Atomic      Atomic             Coordinates (Angstroms)
 Number     Number       Type             X           Y           Z
 ---------------------------------------------------------------------
      1         29           0       -0.093772   -0.000040    0.123541
      2          8           0       -1.449033    0.000050   -0.162912
      3          8           0        1.727209    0.000035   -0.134501
      4          1           0        2.289649   -0.791038   -0.248592
      5          1           0        2.289580    0.791217   -0.248177
      6          1           0       -2.042769   -0.778906   -0.353346
      7          1           0       -2.042481    0.779199   -0.353262
 ---------------------------------------------------------------------

 The electronic state is 2-A.
 Alpha  occ. eigenvalues -- -323.58923 -39.41336 -34.64568 -34.63432 -34.61167
 Alpha  occ. eigenvalues --  -19.72044 -19.62923  -4.94812  -3.48389  -3.44463
 Alpha  occ. eigenvalues --   -3.40017  -1.62481  -1.50961  -1.14623  -1.12953
 Alpha  occ. eigenvalues --   -1.04220  -1.02398  -0.95120  -0.89546  -0.89361
 Alpha  occ. eigenvalues --   -0.88185  -0.86336  -0.82107  -0.80644
 Alpha virt. eigenvalues --   -0.45035  -0.37440  -0.33688  -0.29837  -0.27139
 Alpha virt. eigenvalues --   -0.19707  -0.18151  -0.04600  -0.02704   0.01961
 Alpha virt. eigenvalues --    0.14723   0.24625   0.27667   0.28987   0.39040

  Beta  occ. eigenvalues -- -323.58912 -39.39284 -34.62139 -34.61435 -34.60601
  Beta  occ. eigenvalues --  -19.71431 -19.62581  -4.90696  -3.42122  -3.39222
  Beta  occ. eigenvalues --   -3.38620  -1.60996  -1.50179  -1.13454  -1.12350
  Beta  occ. eigenvalues --   -1.02131  -0.97519  -0.94232  -0.87383  -0.87345
  Beta  occ. eigenvalues --   -0.86251  -0.80956  -0.80418
  Beta virt. eigenvalues --   -0.65241  -0.44564  -0.37189  -0.33538  -0.29561
  Beta virt. eigenvalues --   -0.27059  -0.19512  -0.18140  -0.04537  -0.02487
  Beta virt. eigenvalues --    0.02067   0.16428   0.25422   0.28712   0.29279

 Mulliken charges and spin densities:
               1          2
     1  Cu   1.412571   0.678028
     2  O   -0.855993   0.232881
     3  O   -0.885075   0.110242
     4  H    0.569765  -0.003318
     5  H    0.569758  -0.003317
     6  H    0.594496  -0.007257
     7  H    0.594478  -0.007259
 Sum of Mulliken charges =   2.00000   1.00000

 Dipole moment (field-independent basis, Debye):
    X=             -0.8779    Y=              0.0006    Z=             -1.3331  Tot=              1.5962
 Quadrupole moment (field-independent basis, Debye-Ang):
   XX=             10.8833   YY=            -14.5598   ZZ=            -20.8755
   XY=              0.0001   XZ=              0.9660   YZ=              0.0008

 Normal termination of Gaussian 09 at Sat Jun 18 18:17:56 2016.
