 Gaussian 09, Revision D.01,
 Gaussian 09:  EM64L-G09RevD.01 24-Apr-2013

 -------------------------------------------------------
 #opt=(modredundant,maxcycles=350) B3LYP/6-311G* scf=xqc
 -------------------------------------------------------

 ---------
 cu2(h20)2
 ---------
 Symbolic Z-matrix:
 Charge =  2 Multiplicity = 2

 SCF Done:  E(UB3LYP) =  -1792.39299732     A.U. after   65 cycles
 SCF Done:  E(UB3LYP) =  -1792.49271770     a.u. after   18 cycles
 SCF Done:  E(UB3LYP) =  -1792.51600181     A.U. after   24 cycles
 SCF Done:  E(UB3LYP) =  -1792.53939317     A.U. after   29 cycles
 SCF Done:  E(UB3LYP) =  -1792.54237544     A.U. after   30 cycles
 SCF Done:  E(UB3LYP) =  -1792.54254370     A.U. after   21 cycles
 SCF Done:  E(UB3LYP) =  -1792.54255131     A.U. after   22 cycles
 SCF Done:  E(UB3LYP) =  -1792.54255179     A.U. after   23 cycles
 SCF Done:  E(UB3LYP) =  -1792.54255238     A.U. after   19 cycles
 SCF Done:  E(UB3LYP) =  -1792.54255372     A.U. after   20 cycles
 Optimization completed.
    -- Stationary point found.
 Optimization completed.
 SCF Done:  E(UB3LYP) =  -1792.55745373     A.U. after   14 cycles
 SCF Done:  E(UB3LYP) =  -1792.55745379     A.U. after   13 cycles
 SCF Done:  E(UB3LYP) =  -1792.51046118     A.U. after   15 cycles
 SCF Done:  E(UB3LYP) =  -1792.51057825     A.U. after   14 cycles
 SCF Done:  E(UB3LYP) =  -1792.51057868     A.U. after   14 cycles
 SCF Done:  E(UB3LYP) =  -1792.51057876     A.U. after   12 cycles
    -- Stationary point found.
 SCF Done:  E(UB3LYP) =  -1792.42778952     A.U. after   15 cycles
 SCF Done:  E(UB3LYP) =  -1792.42798795     A.U. after   14 cycles
 SCF Done:  E(UB3LYP) =  -1792.42798874     A.U. after   14 cycles
 SCF Done:  E(UB3LYP) =  -1792.42798874     A.U. after   13 cycles
 Optimization completed.
    -- Stationary point found.

                         Standard orientation:
 ---------------------------------------------------------------------
 Center     Atomic      Atomic             Coordinates (Angstroms)
 Number     Number       Type             X           Y           Z
 ---------------------------------------------------------------------
      1         29           0       -0.192825    0.406124    0.000006
      2          8           0       -1.054377   -0.678550   -0.000050
      3          8           0        1.566490   -0.357388    0.000018
      4          1           0        2.104641   -0.536378    0.792064
      5          1           0        2.105079   -0.535506   -0.791928
      6          1           0       -1.356955   -1.209368   -0.782882
      7          1           0       -1.357749   -1.208839    0.782834
 ---------------------------------------------------------------------

 The electronic state is 2-A.
 Alpha  occ. eigenvalues -- -323.58161 -39.39998 -34.63383 -34.61794 -34.60172
 Alpha  occ. eigenvalues --  -19.69549 -19.60389  -4.94052  -3.48153  -3.42979
 Alpha  occ. eigenvalues --   -3.39763  -1.60949  -1.48721  -1.13765  -1.12174
 Alpha  occ. eigenvalues --   -1.01542  -1.00748  -0.96592  -0.88708  -0.88141
 Alpha  occ. eigenvalues --   -0.86809  -0.83258  -0.80606  -0.78422
 Alpha virt. eigenvalues --   -0.49382  -0.38017  -0.33360  -0.33068  -0.26429
 Alpha virt. eigenvalues --   -0.20212  -0.18617  -0.03404  -0.01342   0.01601
 Alpha virt. eigenvalues --    0.13105   0.20056   0.28833   0.31390   0.41182

  Beta  occ. eigenvalues -- -323.58122 -39.37928 -34.60874 -34.59850 -34.59567
  Beta  occ. eigenvalues --  -19.69090 -19.60034  -4.89907  -3.41252  -3.38364
  Beta  occ. eigenvalues --   -3.38324  -1.59687  -1.48031  -1.11563  -1.10527
  Beta  occ. eigenvalues --   -1.00405  -0.98634  -0.93615  -0.86756  -0.86109
  Beta  occ. eigenvalues --   -0.84543  -0.81474  -0.78069
  Beta virt. eigenvalues --   -0.62205  -0.48501  -0.37711  -0.33173  -0.32816
  Beta virt. eigenvalues --   -0.26250  -0.20004  -0.18365  -0.03076  -0.01124
  Beta virt. eigenvalues --    0.01764   0.14293   0.21522   0.29169   0.31884

 Mulliken charges and spin densities:
               1          2
     1  Cu   1.523043   0.683784
     2  O   -0.883944   0.219939
     3  O   -0.916584   0.091149
     4  H    0.555098   0.003417
     5  H    0.555105   0.003424
     6  H    0.583640  -0.000863
     7  H    0.583643  -0.000850
 Sum of Mulliken charges =   2.00000   1.00000

 Dipole moment (field-independent basis, Debye):
    X=              0.1183    Y=             -2.1458    Z=              0.0004  Tot=              2.1491
 Quadrupole moment (field-independent basis, Debye-Ang):
   XX=             -1.9189   YY=            -12.5522   ZZ=            -14.2455
   XY=              1.9806   XZ=             -0.0024   YZ=             -0.0010

 Normal termination of Gaussian 09 at Fri Jun 17 12:32:51 2016.
