 Gaussian 09, Revision D.01,
 Gaussian 09:  EM64L-G09RevD.01 24-Apr-2013

 -------------------------------------------------------
 #opt=(modredundant,maxcycles=350) B3LYP/6-311G* scf=xqc
 -------------------------------------------------------

 ---------
 cu2(h20)2
 ---------
 Symbolic Z-matrix:
 Charge =  2 Multiplicity = 2

 SCF Done:  E(UB3LYP) =  -1792.39710321     A.U. after   65 cycles
 SCF Done:  E(UB3LYP) =  -1792.49445967     a.u. after   16 cycles
 SCF Done:  E(UB3LYP) =  -1792.51757539     A.U. after   21 cycles
 SCF Done:  E(UB3LYP) =  -1792.54146723     A.U. after   24 cycles
 SCF Done:  E(UB3LYP) =  -1792.54365878     A.U. after   19 cycles
 SCF Done:  E(UB3LYP) =  -1792.54384341     A.U. after   21 cycles
 SCF Done:  E(UB3LYP) =  -1792.54385040     A.U. after   24 cycles
 SCF Done:  E(UB3LYP) =  -1792.54385221     A.U. after   20 cycles
 SCF Done:  E(UB3LYP) =  -1792.54385415     A.U. after   19 cycles
 SCF Done:  E(UB3LYP) =  -1792.54385780     A.U. after   23 cycles
 Optimization completed.
    -- Stationary point found.
 Optimization completed.
 SCF Done:  E(UB3LYP) =  -1792.56992680     A.U. after   16 cycles
 SCF Done:  E(UB3LYP) =  -1792.56997171     A.U. after   15 cycles
 SCF Done:  E(UB3LYP) =  -1792.56997213     A.U. after   16 cycles
 SCF Done:  E(UB3LYP) =  -1792.52497194     A.U. after   16 cycles
 SCF Done:  E(UB3LYP) =  -1792.52505340     A.U. after   14 cycles
 SCF Done:  E(UB3LYP) =  -1792.52505378     A.U. after   14 cycles
 SCF Done:  E(UB3LYP) =  -1792.52505383     A.U. after   13 cycles
    -- Stationary point found.
 SCF Done:  E(UB3LYP) =  -1792.44462765     A.U. after   15 cycles
 SCF Done:  E(UB3LYP) =  -1792.44478506     A.U. after   14 cycles
 SCF Done:  E(UB3LYP) =  -1792.44478546     A.U. after   13 cycles
 Optimization completed.
    -- Stationary point found.

                         Standard orientation:
 ---------------------------------------------------------------------
 Center     Atomic      Atomic             Coordinates (Angstroms)
 Number     Number       Type             X           Y           Z
 ---------------------------------------------------------------------
      1         29           0       -0.114117    0.267764   -0.000160
      2          8           0       -1.338496   -0.380067    0.000169
      3          8           0        1.664211   -0.279872    0.000160
      4          1           0        2.190974   -0.500816   -0.791212
      5          1           0        2.191223   -0.498896    0.791904
      6          1           0       -1.839151   -0.744181   -0.779955
      7          1           0       -1.839362   -0.741740    0.781256
 ---------------------------------------------------------------------

 The electronic state is 2-A.
 Alpha  occ. eigenvalues -- -323.58645 -39.40840 -34.64164 -34.62773 -34.60818
 Alpha  occ. eigenvalues --  -19.71094 -19.62028  -4.94570  -3.48420  -3.43860
 Alpha  occ. eigenvalues --   -3.39989  -1.61932  -1.50204  -1.14265  -1.12712
 Alpha  occ. eigenvalues --   -1.03797  -1.01877  -0.95217  -0.89171  -0.88794
 Alpha  occ. eigenvalues --   -0.88196  -0.84963  -0.82010  -0.79510
 Alpha virt. eigenvalues --   -0.46430  -0.37622  -0.33488  -0.32064  -0.26940
 Alpha virt. eigenvalues --   -0.19887  -0.18528  -0.03541  -0.03031   0.01321
 Alpha virt. eigenvalues --    0.13678   0.21965   0.28984   0.31815   0.35507

  Beta  occ. eigenvalues -- -323.58621 -39.38766 -34.61667 -34.60798 -34.60227
  Beta  occ. eigenvalues --  -19.70565 -19.61691  -4.90411  -3.41781  -3.38909
  Beta  occ. eigenvalues --   -3.38555  -1.60571  -1.49466  -1.12261  -1.12115
  Beta  occ. eigenvalues --   -1.01588  -0.98529  -0.93811  -0.87168  -0.86615
  Beta  occ. eigenvalues --   -0.86211  -0.81590  -0.79189
  Beta virt. eigenvalues --   -0.63777  -0.45821  -0.37330  -0.33294  -0.31828
  Beta virt. eigenvalues --   -0.26826  -0.19684  -0.18419  -0.03420  -0.02744
  Beta virt. eigenvalues --    0.01463   0.15083   0.23082   0.29290   0.32915

 Mulliken charges and spin densities:
               1          2
     1  Cu   1.468501   0.684279
     2  O   -0.875381   0.224935
     3  O   -0.903951   0.101694
     4  H    0.564937  -0.001034
     5  H    0.564928  -0.001032
     6  H    0.590507  -0.004424
     7  H    0.590458  -0.004418
 Sum of Mulliken charges =   2.00000   1.00000

 Dipole moment (field-independent basis, Debye):
    X=             -0.6190    Y=             -2.2585    Z=              0.0027  Tot=              2.3418
 Quadrupole moment (field-independent basis, Debye-Ang):
   XX=              5.4333   YY=            -17.5105   ZZ=            -14.4145
   XY=              1.5199   XZ=             -0.0023   YZ=              0.0069

 Normal termination of Gaussian 09 at Fri Jun 17 15:32:46 2016.
