 Gaussian 09, Revision D.01,
 Gaussian 09:  EM64L-G09RevD.01 24-Apr-2013

 -------------------------------------------------------
 #opt=(modredundant,maxcycles=350) B3LYP/6-311G* scf=xqc
 -------------------------------------------------------

 ---------
 cu2(h20)2
 ---------
 Symbolic Z-matrix:
 Charge =  2 Multiplicity = 2

 SCF Done:  E(UB3LYP) =  -1792.39422162     A.U. after   65 cycles
 SCF Done:  E(UB3LYP) =  -1792.49810847     a.u. after   38 cycles
 SCF Done:  E(UB3LYP) =  -1792.52087591     A.U. after   17 cycles
 SCF Done:  E(UB3LYP) =  -1792.54421320     A.U. after   20 cycles
 SCF Done:  E(UB3LYP) =  -1792.54629343     A.U. after   17 cycles
 SCF Done:  E(UB3LYP) =  -1792.54646080     A.U. after   15 cycles
 SCF Done:  E(UB3LYP) =  -1792.54646512     A.U. after   13 cycles
 SCF Done:  E(UB3LYP) =  -1792.54646577     A.U. after   13 cycles
 Optimization completed.
    -- Stationary point found.
 SCF Done:  E(UB3LYP) =  -1792.54576256     A.U. after   17 cycles
 SCF Done:  E(UB3LYP) =  -1792.54576516     A.U. after   14 cycles
 Optimization completed.
 SCF Done:  E(UB3LYP) =  -1792.56032435     A.U. after   14 cycles
 SCF Done:  E(UB3LYP) =  -1792.56032479     A.U. after   14 cycles
 SCF Done:  E(UB3LYP) =  -1792.56032485     A.U. after   14 cycles
 SCF Done:  E(UB3LYP) =  -1792.51365603     A.U. after   15 cycles
 SCF Done:  E(UB3LYP) =  -1792.51375869     A.U. after   14 cycles
 SCF Done:  E(UB3LYP) =  -1792.51375893     A.U. after   14 cycles
    -- Stationary point found.
 SCF Done:  E(UB3LYP) =  -1792.43134119     A.U. after   15 cycles
 SCF Done:  E(UB3LYP) =  -1792.43152327     A.U. after   14 cycles
 SCF Done:  E(UB3LYP) =  -1792.43152431     A.U. after   13 cycles
 SCF Done:  E(UB3LYP) =  -1792.43152438     A.U. after   13 cycles
 Optimization completed.
    -- Stationary point found.

                         Standard orientation:
 ---------------------------------------------------------------------
 Center     Atomic      Atomic             Coordinates (Angstroms)
 Number     Number       Type             X           Y           Z
 ---------------------------------------------------------------------
      1         29           0       -0.171438    0.388057    0.000005
      2          8           0       -1.118570   -0.622748   -0.000008
      3          8           0        1.579668   -0.360204   -0.000005
      4          1           0        2.107315   -0.568188   -0.792307
      5          1           0        2.107359   -0.568264    0.792259
      6          1           0       -1.465825   -1.126845    0.782540
      7          1           0       -1.465942   -1.126751   -0.782535
 ---------------------------------------------------------------------

 The electronic state is 2-A.
 Alpha  occ. eigenvalues -- -323.58219 -39.40118 -34.63491 -34.61937 -34.60262
 Alpha  occ. eigenvalues --  -19.69815 -19.60690  -4.94131  -3.48192  -3.43120
 Alpha  occ. eigenvalues --   -3.39794  -1.61121  -1.48993  -1.13859  -1.12277
 Alpha  occ. eigenvalues --   -1.01931  -1.00990  -0.96490  -0.88777  -0.88145
 Alpha  occ. eigenvalues --   -0.87005  -0.83639  -0.80903  -0.78518
 Alpha virt. eigenvalues --   -0.48851  -0.37981  -0.33327  -0.33150  -0.26532
 Alpha virt. eigenvalues --   -0.20142  -0.18682  -0.03530  -0.01746   0.01532
 Alpha virt. eigenvalues --    0.12787   0.20095   0.28862   0.32049   0.39709

  Beta  occ. eigenvalues -- -323.58182 -39.38043 -34.60978 -34.59980 -34.59658
  Beta  occ. eigenvalues --  -19.69352 -19.60340  -4.89972  -3.41314  -3.38437
  Beta  occ. eigenvalues --   -3.38353  -1.59856  -1.48299  -1.11673  -1.10796
  Beta  occ. eigenvalues --   -1.00656  -0.98555  -0.93937  -0.86809  -0.86116
  Beta  occ. eigenvalues --   -0.84801  -0.81641  -0.78180
  Beta virt. eigenvalues --   -0.62372  -0.48019  -0.37673  -0.33139  -0.32906
  Beta virt. eigenvalues --   -0.26364  -0.19934  -0.18450  -0.03192  -0.01542
  Beta virt. eigenvalues --    0.01692   0.13991   0.21512   0.29190   0.32477

 Mulliken charges and spin densities:
               1          2
     1  Cu   1.518226   0.685764
     2  O   -0.885533   0.219055
     3  O   -0.917056   0.092453
     4  H    0.557336   0.002670
     5  H    0.557342   0.002671
     6  H    0.584842  -0.001307
     7  H    0.584844  -0.001305
 Sum of Mulliken charges =   2.00000   1.00000

 Dipole moment (field-independent basis, Debye):
    X=             -0.0600    Y=             -2.2678    Z=              0.0000  Tot=              2.2686
 Quadrupole moment (field-independent basis, Debye-Ang):
   XX=             -0.7998   YY=            -13.3334   ZZ=            -14.2614
   XY=              1.9051   XZ=              0.0002   YZ=             -0.0003

 Normal termination of Gaussian 09 at Fri Jun 17 12:14:17 2016.
