 Gaussian 09, Revision D.01,
 Gaussian 09:  EM64L-G09RevD.01 24-Apr-2013

 -------------------------------------------------------
 #opt=(modredundant,maxcycles=350) B3LYP/6-311G* scf=xqc
 -------------------------------------------------------

 ---------
 cu2(h20)2
 ---------
 Symbolic Z-matrix:
 Charge =  2 Multiplicity = 2

 SCF Done:  E(UB3LYP) =  -1792.34661152     A.U. after   65 cycles
 SCF Done:  E(UB3LYP) =  -1792.49864817     a.u. after   37 cycles
 SCF Done:  E(UB3LYP) =  -1792.52135971     A.U. after   16 cycles
 SCF Done:  E(UB3LYP) =  -1792.54457734     A.U. after   17 cycles
 SCF Done:  E(UB3LYP) =  -1792.54662538     A.U. after   17 cycles
 SCF Done:  E(UB3LYP) =  -1792.54679514     A.U. after   14 cycles
 SCF Done:  E(UB3LYP) =  -1792.54679943     A.U. after   13 cycles
 SCF Done:  E(UB3LYP) =  -1792.54679999     A.U. after   13 cycles
 Optimization completed.
    -- Stationary point found.
 SCF Done:  E(UB3LYP) =  -1792.54608352     A.U. after   17 cycles
 SCF Done:  E(UB3LYP) =  -1792.54608501     A.U. after   13 cycles
 Optimization completed.
 SCF Done:  E(UB3LYP) =  -1792.58450182     A.U. after   17 cycles
 SCF Done:  E(UB3LYP) =  -1792.58450200     A.U. after   16 cycles
 SCF Done:  E(UB3LYP) =  -1792.56069054     A.U. after   15 cycles
 SCF Done:  E(UB3LYP) =  -1792.56073615     A.U. after   16 cycles
 SCF Done:  E(UB3LYP) =  -1792.56073669     A.U. after   16 cycles
 SCF Done:  E(UB3LYP) =  -1792.51471856     A.U. after   15 cycles
 SCF Done:  E(UB3LYP) =  -1792.51479738     A.U. after   13 cycles
 SCF Done:  E(UB3LYP) =  -1792.51479778     A.U. after   14 cycles
    -- Stationary point found.
 SCF Done:  E(UB3LYP) =  -1792.43315574     A.U. after   16 cycles
 SCF Done:  E(UB3LYP) =  -1792.43330701     A.U. after   13 cycles
 Optimization completed.
    -- Stationary point found.

                         Standard orientation:
 ---------------------------------------------------------------------
 Center     Atomic      Atomic             Coordinates (Angstroms)
 Number     Number       Type             X           Y           Z
 ---------------------------------------------------------------------
      1         29           0       -0.139638    0.345573   -0.000055
      2          8           0       -1.231276   -0.507137    0.000025
      3          8           0        1.616665   -0.364217   -0.000032
      4          1           0        2.441916    0.155532    0.000918
      5          1           0        1.846293   -1.308926   -0.000245
      6          1           0       -1.660748   -0.948056    0.782397
      7          1           0       -1.661063   -0.949346   -0.781431
 ---------------------------------------------------------------------

 The electronic state is 2-A.
 Alpha  occ. eigenvalues -- -323.58963 -39.41035 -34.64446 -34.62950 -34.60979
 Alpha  occ. eigenvalues --  -19.71179 -19.60005  -4.94947  -3.49009  -3.44204
 Alpha  occ. eigenvalues --   -3.40261  -1.62133  -1.48491  -1.14627  -1.12972
 Alpha  occ. eigenvalues --   -1.03746  -1.00351  -0.95489  -0.89839  -0.89181
 Alpha  occ. eigenvalues --   -0.87863  -0.83366  -0.82245  -0.78231
 Alpha virt. eigenvalues --   -0.48267  -0.38475  -0.33634  -0.32851  -0.26168
 Alpha virt. eigenvalues --   -0.20185  -0.15557  -0.09052  -0.00474   0.02313
 Alpha virt. eigenvalues --    0.14458   0.24502   0.25880   0.32642   0.35302

  Beta  occ. eigenvalues -- -323.58934 -39.38905 -34.61866 -34.60931 -34.60373
  Beta  occ. eigenvalues --  -19.70651 -19.59755  -4.90672  -3.42121  -3.39178
  Beta  occ. eigenvalues --   -3.38785  -1.60755  -1.47976  -1.12355  -1.12222
  Beta  occ. eigenvalues --   -1.00647  -0.97891  -0.93567  -0.87784  -0.87271
  Beta  occ. eigenvalues --   -0.85657  -0.81558  -0.77786
  Beta virt. eigenvalues --   -0.63532  -0.47585  -0.38165  -0.33411  -0.32682
  Beta virt. eigenvalues --   -0.26016  -0.19986  -0.15377  -0.08470  -0.00257
  Beta virt. eigenvalues --    0.02462   0.15618   0.25681   0.26115   0.32905

 Mulliken charges and spin densities:
               1          2
     1  Cu   1.519131   0.698247
     2  O   -0.882326   0.231699
     3  O   -0.930825   0.069189
     4  H    0.560117   0.008498
     5  H    0.555027  -0.001028
     6  H    0.589396  -0.003308
     7  H    0.589480  -0.003298
 Sum of Mulliken charges =   2.00000   1.00000

 Dipole moment (field-independent basis, Debye):
    X=             -0.5901    Y=             -2.0973    Z=              0.0035  Tot=              2.1787
 Quadrupole moment (field-independent basis, Debye-Ang):
   XX=              2.4367   YY=            -11.7853   ZZ=            -18.2857
   XY=              3.3532   XZ=              0.0022   YZ=              0.0023

 Normal termination of Gaussian 09 at Fri Jun 17 13:40:53 2016.
